[
    {
        "atomicNumber": 1,
        "group": 1,
        "name": "Hydrogen",
        "symbol": "H",
        "quirkyFact": "The most abundant chemical substance in the universe!",
        "xpos": 1,
        "ypos": 1
    },
    {
        "atomicNumber": 2,
        "group": 18,
        "name": "Helium",
        "symbol": "He",
        "quirkyFact": "Known for making your voice high-pitched when inhaled (don't try this at home!).",
        "xpos": 18,
        "ypos": 1
    },
    {
        "atomicNumber": 3,
        "group": 1,
        "name": "Lithium",
        "symbol": "Li",
        "quirkyFact": "Used in batteries for your phone and electric cars.",
        "xpos": 1,
        "ypos": 2
    },
    {
        "atomicNumber": 4,
        "group": 2,
        "name": "Beryllium",
        "symbol": "Be",
        "quirkyFact": "Found in emeralds, giving them their green color!",
        "xpos": 2,
        "ypos": 2
    },
    {
        "atomicNumber": 5,
        "group": 13,
        "name": "Boron",
        "symbol": "B",
        "quirkyFact": "A key ingredient in Borax and heat-resistant glass like Pyrex.",
        "xpos": 13,
        "ypos": 2
    },
    {
        "atomicNumber": 6,
        "group": 14,
        "name": "Carbon",
        "symbol": "C",
        "quirkyFact": "The backbone of all known life, found in diamonds and graphite!",
        "xpos": 14,
        "ypos": 2
    },
    {
        "atomicNumber": 7,
        "group": 15,
        "name": "Nitrogen",
        "symbol": "N",
        "quirkyFact": "Makes up about 78% of Earth's atmosphere!",
        "xpos": 15,
        "ypos": 2
    },
    {
        "atomicNumber": 8,
        "group": 16,
        "name": "Oxygen",
        "symbol": "O",
        "quirkyFact": "We literally can't live without it! Used in breathing and fire.",
        "xpos": 16,
        "ypos": 2
    },
    {
        "atomicNumber": 9,
        "group": 17,
        "name": "Fluorine",
        "symbol": "F",
        "quirkyFact": "The most reactive chemical element, it can even burn water!",
        "xpos": 17,
        "ypos": 2
    },
    {
        "atomicNumber": 10,
        "group": 18,
        "name": "Neon",
        "symbol": "Ne",
        "quirkyFact": "Gives neon signs their distinctive orange-red glow!",
        "xpos": 18,
        "ypos": 2
    },
    {
        "atomicNumber": 11,
        "group": 1,
        "name": "Sodium",
        "symbol": "Na",
        "quirkyFact": "Explodes violently when put in water, but is in table salt!",
        "xpos": 1,
        "ypos": 3
    },
    {
        "atomicNumber": 12,
        "group": 2,
        "name": "Magnesium",
        "symbol": "Mg",
        "quirkyFact": "Burns with a brilliant white light, often used in fireworks!",
        "xpos": 2,
        "ypos": 3
    },
    {
        "atomicNumber": 13,
        "group": 13,
        "name": "Aluminum",
        "symbol": "Al",
        "quirkyFact": "The most abundant metal in Earth's crust, lightweight and recyclable!",
        "xpos": 13,
        "ypos": 3
    },
    {
        "atomicNumber": 14,
        "group": 14,
        "name": "Silicon",
        "symbol": "Si",
        "quirkyFact": "The main component of sand and basis for computer chips!",
        "xpos": 14,
        "ypos": 3
    },
    {
        "atomicNumber": 15,
        "group": 15,
        "name": "Phosphorus",
        "symbol": "P",
        "quirkyFact": "Comes in white (glowing!) and red (matches!) forms.",
        "xpos": 15,
        "ypos": 3
    },
    {
        "atomicNumber": 16,
        "group": 16,
        "name": "Sulfur",
        "symbol": "S",
        "quirkyFact": "Smells like rotten eggs but is vital for life!",
        "xpos": 16,
        "ypos": 3
    },
    {
        "atomicNumber": 17,
        "group": 17,
        "name": "Chlorine",
        "symbol": "Cl",
        "quirkyFact": "A greenish-yellow gas used to purify water and bleach.",
        "xpos": 17,
        "ypos": 3
    },
    {
        "atomicNumber": 18,
        "group": 18,
        "name": "Argon",
        "symbol": "Ar",
        "quirkyFact": "Used in double-paned windows and old light bulbs to prevent oxidation.",
        "xpos": 18,
        "ypos": 3
    },
    {
        "atomicNumber": 19,
        "group": 1,
        "name": "Potassium",
        "symbol": "K",
        "quirkyFact": "Essential for banana's health benefits and reacts violently with water!",
        "xpos": 1,
        "ypos": 4
    },
    {
        "atomicNumber": 20,
        "group": 2,
        "name": "Calcium",
        "symbol": "Ca",
        "quirkyFact": "Makes your bones strong and found in chalk and limestone!",
        "xpos": 2,
        "ypos": 4
    },
    {
        "atomicNumber": 21,
        "group": 3,
        "name": "Scandium",
        "symbol": "Sc",
        "quirkyFact": "Used in aerospace components and some sports equipment.",
        "xpos": 3,
        "ypos": 4
    },
    {
        "atomicNumber": 22,
        "group": 4,
        "name": "Titanium",
        "symbol": "Ti",
        "quirkyFact": "Strong as steel but much lighter, used in aircraft and implants.",
        "xpos": 4,
        "ypos": 4
    },
    {
        "atomicNumber": 23,
        "group": 5,
        "name": "Vanadium",
        "symbol": "V",
        "quirkyFact": "Used to make tough steel alloys for tools and armor.",
        "xpos": 5,
        "ypos": 4
    },
    {
        "atomicNumber": 24,
        "group": 6,
        "name": "Chromium",
        "symbol": "Cr",
        "quirkyFact": "Gives rubies their red color and makes stainless steel shiny!",
        "xpos": 6,
        "ypos": 4
    },
    {
        "atomicNumber": 25,
        "group": 7,
        "name": "Manganese",
        "symbol": "Mn",
        "quirkyFact": "Essential for plants and used to decolorize glass or make it purple!",
        "xpos": 7,
        "ypos": 4
    },
    {
        "atomicNumber": 26,
        "group": 8,
        "name": "Iron",
        "symbol": "Fe",
        "quirkyFact": "The main component of steel and found in your blood!",
        "xpos": 8,
        "ypos": 4
    },
    {
        "atomicNumber": 27,
        "group": 9,
        "name": "Cobalt",
        "symbol": "Co",
        "quirkyFact": "Used to make powerful magnets and gives a deep blue color to glass.",
        "xpos": 9,
        "ypos": 4
    },
    {
        "atomicNumber": 28,
        "group": 10,
        "name": "Nickel",
        "symbol": "Ni",
        "quirkyFact": "Used in coins, batteries, and to make stainless steel rust-resistant.",
        "xpos": 10,
        "ypos": 4
    },
    {
        "atomicNumber": 29,
        "group": 11,
        "name": "Copper",
        "symbol": "Cu",
        "quirkyFact": "An excellent conductor, used in wiring and plumbing for centuries!",
        "xpos": 11,
        "ypos": 4
    },
    {
        "atomicNumber": 30,
        "group": 12,
        "name": "Zinc",
        "symbol": "Zn",
        "quirkyFact": "Protects steel from rust (galvanizing) and crucial for your immune system.",
        "xpos": 12,
        "ypos": 4
    },
    {
        "atomicNumber": 31,
        "group": 13,
        "name": "Gallium",
        "symbol": "Ga",
        "quirkyFact": "Melts in your hand! Used in semiconductors and LEDs.",
        "xpos": 13,
        "ypos": 4
    },
    {
        "atomicNumber": 32,
        "group": 14,
        "name": "Germanium",
        "symbol": "Ge",
        "quirkyFact": "An important semiconductor material, used in fiber optics.",
        "xpos": 14,
        "ypos": 4
    },
    {
        "atomicNumber": 33,
        "group": 15,
        "name": "Arsenic",
        "symbol": "As",
        "quirkyFact": "Infamous for being a potent poison, but also used in semiconductors.",
        "xpos": 15,
        "ypos": 4
    },
    {
        "atomicNumber": 34,
        "group": 16,
        "name": "Selenium",
        "symbol": "Se",
        "quirkyFact": "Can convert light into electricity, used in solar cells and photocopiers.",
        "xpos": 16,
        "ypos": 4
    },
    {
        "atomicNumber": 35,
        "group": 17,
        "name": "Bromine",
        "symbol": "Br",
        "quirkyFact": "The only nonmetal element that is a liquid at room temperature.",
        "xpos": 17,
        "ypos": 4
    },
    {
        "atomicNumber": 36,
        "group": 18,
        "name": "Krypton",
        "symbol": "Kr",
        "quirkyFact": "Used in some types of lights and makes a 'flash' when used in lasers.",
        "xpos": 18,
        "ypos": 4
    },
    {
        "atomicNumber": 37,
        "group": 1,
        "name": "Rubidium",
        "symbol": "Rb",
        "quirkyFact": "So reactive that it will ignite spontaneously in air!",
        "xpos": 1,
        "ypos": 5
    },
    {
        "atomicNumber": 38,
        "group": 2,
        "name": "Strontium",
        "symbol": "Sr",
        "quirkyFact": "Gives fireworks a beautiful crimson red color!",
        "xpos": 2,
        "ypos": 5
    },
    {
        "atomicNumber": 39,
        "group": 3,
        "name": "Yttrium",
        "symbol": "Y",
        "quirkyFact": "Named after Ytterby, a village in Sweden, which has 4 elements named after it!",
        "xpos": 3,
        "ypos": 5
    },
    {
        "atomicNumber": 40,
        "group": 4,
        "name": "Zirconium",
        "symbol": "Zr",
        "quirkyFact": "Highly resistant to corrosion, used in nuclear reactors and surgical instruments.",
        "xpos": 4,
        "ypos": 5
    },
    {
        "atomicNumber": 41,
        "group": 5,
        "name": "Niobium",
        "symbol": "Nb",
        "quirkyFact": "Used in superconducting magnets and jet engines.",
        "xpos": 5,
        "ypos": 5
    },
    {
        "atomicNumber": 42,
        "group": 6,
        "name": "Molybdenum",
        "symbol": "Mo",
        "quirkyFact": "An essential trace element for life, also used in steel alloys.",
        "xpos": 6,
        "ypos": 5
    },
    {
        "atomicNumber": 43,
        "group": 7,
        "name": "Technetium",
        "symbol": "Tc",
        "quirkyFact": "The first element to be artificially produced, no stable isotopes exist!",
        "xpos": 7,
        "ypos": 5
    },
    {
        "atomicNumber": 44,
        "group": 8,
        "name": "Ruthenium",
        "symbol": "Ru",
        "quirkyFact": "One of the rarest elements in Earth's crust, used to harden platinum alloys.",
        "xpos": 8,
        "ypos": 5
    },
    {
        "atomicNumber": 45,
        "group": 9,
        "name": "Rhodium",
        "symbol": "Rh",
        "quirkyFact": "The most expensive non-radioactive metal, used in car catalytic converters.",
        "xpos": 9,
        "ypos": 5
    },
    {
        "atomicNumber": 46,
        "group": 10,
        "name": "Palladium",
        "symbol": "Pd",
        "quirkyFact": "Can absorb up to 900 times its own volume of hydrogen gas!",
        "xpos": 10,
        "ypos": 5
    },
    {
        "atomicNumber": 47,
        "group": 11,
        "name": "Silver",
        "symbol": "Ag",
        "quirkyFact": "The best conductor of electricity among all metals.",
        "xpos": 11,
        "ypos": 5
    },
    {
        "atomicNumber": 48,
        "group": 12,
        "name": "Cadmium",
        "symbol": "Cd",
        "quirkyFact": "Used in rechargeable batteries, but is quite toxic.",
        "xpos": 12,
        "ypos": 5
    },
    {
        "atomicNumber": 49,
        "group": 13,
        "name": "Indium",
        "symbol": "In",
        "quirkyFact": "So soft it can be cut with a knife and leaves a mark on paper.",
        "xpos": 13,
        "ypos": 5
    },
    {
        "atomicNumber": 50,
        "group": 14,
        "name": "Tin",
        "symbol": "Sn",
        "quirkyFact": "When bent, it makes a characteristic 'tin cry' due to crystal twinning.",
        "xpos": 14,
        "ypos": 5
    },
    {
        "atomicNumber": 51,
        "group": 15,
        "name": "Antimony",
        "symbol": "Sb",
        "quirkyFact": "Used in cosmetics since ancient times and in fire retardants.",
        "xpos": 15,
        "ypos": 5
    },
    {
        "atomicNumber": 52,
        "group": 16,
        "name": "Tellurium",
        "symbol": "Te",
        "quirkyFact": "Its compounds can give you a garlic-like breath odor!",
        "xpos": 16,
        "ypos": 5
    },
    {
        "atomicNumber": 53,
        "group": 17,
        "name": "Iodine",
        "symbol": "I",
        "quirkyFact": "Essential for thyroid hormones and turns purple when heated.",
        "xpos": 17,
        "ypos": 5
    },
    {
        "atomicNumber": 54,
        "group": 18,
        "name": "Xenon",
        "symbol": "Xe",
        "quirkyFact": "Used in flash lamps and some powerful headlights, glows blue!",
        "xpos": 18,
        "ypos": 5
    },
    {
        "atomicNumber": 55,
        "group": 1,
        "name": "Cesium",
        "symbol": "Cs",
        "quirkyFact": "The most reactive of all metals, ignites in air and water.",
        "xpos": 1,
        "ypos": 6
    },
    {
        "atomicNumber": 56,
        "group": 2,
        "name": "Barium",
        "symbol": "Ba",
        "quirkyFact": "Gives fireworks a vibrant green color!",
        "xpos": 2,
        "ypos": 6
    },
    {
        "atomicNumber": 57,
        "group": 3,
        "name": "Lanthanum",
        "symbol": "La",
        "quirkyFact": "Starts the lanthanide series; used in camera lenses and lighter flints!",
        "xpos": 3,
        "ypos": 6
    },
    {
        "atomicNumber": 58,
        "group": "Lanthanides",
        "name": "Cerium",
        "symbol": "Ce",
        "quirkyFact": "The most abundant rare-earth metal, used in self-cleaning ovens!",
        "xpos": 4,
        "ypos": 8
    },
    {
        "atomicNumber": 59,
        "group": "Lanthanides",
        "name": "Praseodymium",
        "symbol": "Pr",
        "quirkyFact": "Used to make yellow-orange glass for welder's goggles.",
        "xpos": 5,
        "ypos": 8
    },
    {
        "atomicNumber": 60,
        "group": "Lanthanides",
        "name": "Neodymium",
        "symbol": "Nd",
        "quirkyFact": "Used to make incredibly strong magnets and purple-colored glass.",
        "xpos": 6,
        "ypos": 8
    },
    {
        "atomicNumber": 61,
        "group": "Lanthanides",
        "name": "Promethium",
        "symbol": "Pm",
        "quirkyFact": "The only radioactive lanthanide, used in luminous paints.",
        "xpos": 7,
        "ypos": 8
    },
    {
        "atomicNumber": 62,
        "group": "Lanthanides",
        "name": "Samarium",
        "symbol": "Sm",
        "quirkyFact": "Used in high-temperature magnets and to treat cancer.",
        "xpos": 8,
        "ypos": 8
    },
    {
        "atomicNumber": 63,
        "group": "Lanthanides",
        "name": "Europium",
        "symbol": "Eu",
        "quirkyFact": "The most reactive rare-earth element, used in TV screens for red color.",
        "xpos": 9,
        "ypos": 8
    },
    {
        "atomicNumber": 64,
        "group": "Lanthanides",
        "name": "Gadolinium",
        "symbol": "Gd",
        "quirkyFact": "Used in MRI contrast agents and some computer memories.",
        "xpos": 10,
        "ypos": 8
    },
    {
        "atomicNumber": 65,
        "group": "Lanthanides",
        "name": "Terbium",
        "symbol": "Tb",
        "quirkyFact": "Used in energy-efficient light bulbs and hard drives.",
        "xpos": 11,
        "ypos": 8
    },
    {
        "atomicNumber": 66,
        "group": "Lanthanides",
        "name": "Dysprosium",
        "symbol": "Dy",
        "quirkyFact": "Has the highest magnetic strength of any element at room temperature.",
        "xpos": 12,
        "ypos": 8
    },
    {
        "atomicNumber": 67,
        "group": "Lanthanides",
        "name": "Holmium",
        "symbol": "Ho",
        "quirkyFact": "Used to make strong magnets and calibration standards for spectrophotometers.",
        "xpos": 13,
        "ypos": 8
    },
    {
        "atomicNumber": 68,
        "group": "Lanthanides",
        "name": "Erbium",
        "symbol": "Er",
        "quirkyFact": "Used in fiber optic communication and creates pink colors in glass.",
        "xpos": 14,
        "ypos": 8
    },
    {
        "atomicNumber": 69,
        "group": "Lanthanides",
        "name": "Thulium",
        "symbol": "Tm",
        "quirkyFact": "The rarest of the lanthanides, used in portable X-ray devices.",
        "xpos": 15,
        "ypos": 8
    },
    {
        "atomicNumber": 70,
        "group": "Lanthanides",
        "name": "Ytterbium",
        "symbol": "Yb",
        "quirkyFact": "Used in high-stability atomic clocks and some surgical lasers.",
        "xpos": 16,
        "ypos": 8
    },
    {
        "atomicNumber": 71,
        "group": "Lanthanides",
        "name": "Lutetium",
        "symbol": "Lu",
        "quirkyFact": "The last of the lanthanides, used in catalysts and PET scans.",
        "xpos": 17,
        "ypos": 8
    },
    {
        "atomicNumber": 72,
        "group": 4,
        "name": "Hafnium",
        "symbol": "Hf",
        "quirkyFact": "Used in nuclear reactor control rods because it absorbs neutrons well.",
        "xpos": 4,
        "ypos": 6
    },
    {
        "atomicNumber": 73,
        "group": 5,
        "name": "Tantalum",
        "symbol": "Ta",
        "quirkyFact": "Highly corrosion-resistant, used in surgical implants and mobile phones.",
        "xpos": 5,
        "ypos": 6
    },
    {
        "atomicNumber": 74,
        "group": 6,
        "name": "Tungsten",
        "symbol": "W",
        "quirkyFact": "Has the highest melting point of all elements, used in light bulb filaments.",
        "xpos": 6,
        "ypos": 6
    },
    {
        "atomicNumber": 75,
        "group": 7,
        "name": "Rhenium",
        "symbol": "Re",
        "quirkyFact": "One of the densest elements, used in high-temperature superalloys for jet engines.",
        "xpos": 7,
        "ypos": 6
    },
    {
        "atomicNumber": 76,
        "group": 8,
        "name": "Osmium",
        "symbol": "Os",
        "quirkyFact": "The densest naturally occurring element, twice as dense as lead!",
        "xpos": 8,
        "ypos": 6
    },
    {
        "atomicNumber": 77,
        "group": 9,
        "name": "Iridium",
        "symbol": "Ir",
        "quirkyFact": "The most corrosion-resistant metal, found in meteorites.",
        "xpos": 9,
        "ypos": 6
    },
    {
        "atomicNumber": 78,
        "group": 10,
        "name": "Platinum",
        "symbol": "Pt",
        "quirkyFact": "Extremely rare and valuable, used in jewelry and catalytic converters.",
        "xpos": 10,
        "ypos": 6
    },
    {
        "atomicNumber": 79,
        "group": 11,
        "name": "Gold",
        "symbol": "Au",
        "quirkyFact": "It's so ductile, a single ounce can be stretched into a 5-mile-long wire!",
        "xpos": 11,
        "ypos": 6
    },
    {
        "atomicNumber": 80,
        "group": 12,
        "name": "Mercury",
        "symbol": "Hg",
        "quirkyFact": "The only metal that is liquid at room temperature, but it's toxic!",
        "xpos": 12,
        "ypos": 6
    },
    {
        "atomicNumber": 81,
        "group": 13,
        "name": "Thallium",
        "symbol": "Tl",
        "quirkyFact": "Highly toxic, once used as a rat poison and insecticide.",
        "xpos": 13,
        "ypos": 6
    },
    {
        "atomicNumber": 82,
        "group": 14,
        "name": "Lead",
        "symbol": "Pb",
        "quirkyFact": "Used in plumbing in ancient Rome, hence 'plumbing' from 'plumbum' (Latin for lead).",
        "xpos": 14,
        "ypos": 6
    },
    {
        "atomicNumber": 83,
        "group": 15,
        "name": "Bismuth",
        "symbol": "Bi",
        "quirkyFact": "The most naturally diamagnetic metal and has a beautiful iridescent oxide layer.",
        "xpos": 15,
        "ypos": 6
    },
    {
        "atomicNumber": 84,
        "group": 16,
        "name": "Polonium",
        "symbol": "Po",
        "quirkyFact": "Discovered by Marie Curie, it's highly radioactive and used as a source of alpha particles.",
        "xpos": 16,
        "ypos": 6
    },
    {
        "atomicNumber": 85,
        "group": 17,
        "name": "Astatine",
        "symbol": "At",
        "quirkyFact": "The rarest naturally occurring element, less than a gram exists in Earth's crust at any time.",
        "xpos": 17,
        "ypos": 6
    },
    {
        "atomicNumber": 86,
        "group": 18,
        "name": "Radon",
        "symbol": "Rn",
        "quirkyFact": "A radioactive gas that can accumulate in homes, dangerous if inhaled.",
        "xpos": 18,
        "ypos": 6
    },
    {
        "atomicNumber": 87,
        "group": 1,
        "name": "Francium",
        "symbol": "Fr",
        "quirkyFact": "The second rarest naturally occurring element, with a half-life of only 22 minutes.",
        "xpos": 1,
        "ypos": 7
    },
    {
        "atomicNumber": 88,
        "group": 2,
        "name": "Radium",
        "symbol": "Ra",
        "quirkyFact": "Discovered by Marie Curie, it glows in the dark and was once used in watches.",
        "xpos": 2,
        "ypos": 7
    },
    {
        "atomicNumber": 89,
        "group": 3,
        "name": "Actinium",
        "symbol": "Ac",
        "quirkyFact": "Starts the actinide series, highly radioactive and used in research.",
        "xpos": 3,
        "ypos": 7
    },
    {
        "atomicNumber": 90,
        "group": "Actinides",
        "name": "Thorium",
        "symbol": "Th",
        "quirkyFact": "A radioactive element that can be used as a nuclear fuel.",
        "xpos": 4,
        "ypos": 9
    },
    {
        "atomicNumber": 91,
        "group": "Actinides",
        "name": "Protactinium",
        "symbol": "Pa",
        "quirkyFact": "One of the rarest and most expensive naturally occurring elements.",
        "xpos": 5,
        "ypos": 9
    },
    {
        "atomicNumber": 92,
        "group": "Actinides",
        "name": "Uranium",
        "symbol": "U",
        "quirkyFact": "The primary fuel for nuclear reactors and bombs.",
        "xpos": 6,
        "ypos": 9
    },
    {
        "atomicNumber": 93,
        "group": "Actinides",
        "name": "Neptunium",
        "symbol": "Np",
        "quirkyFact": "The first transuranic element, discovered in 1940.",
        "xpos": 7,
        "ypos": 9
    },
    {
        "atomicNumber": 94,
        "group": "Actinides",
        "name": "Plutonium",
        "symbol": "Pu",
        "quirkyFact": "Used in nuclear weapons and as a power source for spacecraft.",
        "xpos": 8,
        "ypos": 9
    },
    {
        "atomicNumber": 95,
        "group": "Actinides",
        "name": "Americium",
        "symbol": "Am",
        "quirkyFact": "Found in household smoke detectors.",
        "xpos": 9,
        "ypos": 9
    },
    {
        "atomicNumber": 96,
        "group": "Actinides",
        "name": "Curium",
        "symbol": "Cm",
        "quirkyFact": "Named after Marie and Pierre Curie, discovered in 1944.",
        "xpos": 10,
        "ypos": 9
    },
    {
        "atomicNumber": 97,
        "group": "Actinides",
        "name": "Berkelium",
        "symbol": "Bk",
        "quirkyFact": "Named after Berkeley, California, where it was discovered.",
        "xpos": 11,
        "ypos": 9
    },
    {
        "atomicNumber": 98,
        "group": "Actinides",
        "name": "Californium",
        "symbol": "Cf",
        "quirkyFact": "One of the most expensive elements, used in neutron sources.",
        "xpos": 12,
        "ypos": 9
    },
    {
        "atomicNumber": 99,
        "group": "Actinides",
        "name": "Einsteinium",
        "symbol": "Es",
        "quirkyFact": "Named after Albert Einstein, discovered in debris from a nuclear test.",
        "xpos": 13,
        "ypos": 9
    },
    {
        "atomicNumber": 100,
        "group": "Actinides",
        "name": "Fermium",
        "symbol": "Fm",
        "quirkyFact": "Named after Enrico Fermi, also discovered from nuclear test debris.",
        "xpos": 14,
        "ypos": 9
    },
    {
        "atomicNumber": 101,
        "group": "Actinides",
        "name": "Mendelevium",
        "symbol": "Md",
        "quirkyFact": "Named after Dmitri Mendeleev, creator of the periodic table.",
        "xpos": 15,
        "ypos": 9
    },
    {
        "atomicNumber": 102,
        "group": "Actinides",
        "name": "Nobelium",
        "symbol": "No",
        "quirkyFact": "Named after Alfred Nobel, founder of the Nobel Prizes.",
        "xpos": 16,
        "ypos": 9
    },
    {
        "atomicNumber": 103,
        "group": "Actinides",
        "name": "Lawrencium",
        "symbol": "Lr",
        "quirkyFact": "Named after Ernest Lawrence, inventor of the cyclotron.",
        "xpos": 17,
        "ypos": 9
    },
    {
        "atomicNumber": 104,
        "group": 4,
        "name": "Rutherfordium",
        "symbol": "Rf",
        "quirkyFact": "Named after Ernest Rutherford, the 'father of nuclear physics'.",
        "xpos": 4,
        "ypos": 7
    },
    {
        "atomicNumber": 105,
        "group": 5,
        "name": "Dubnium",
        "symbol": "Db",
        "quirkyFact": "Named after Dubna, Russia, a center for nuclear research.",
        "xpos": 5,
        "ypos": 7
    },
    {
        "atomicNumber": 106,
        "group": 6,
        "name": "Seaborgium",
        "symbol": "Sg",
        "quirkyFact": "Named after Glenn T. Seaborg, a Nobel-winning chemist.",
        "xpos": 6,
        "ypos": 7
    },
    {
        "atomicNumber": 107,
        "group": 7,
        "name": "Bohrium",
        "symbol": "Bh",
        "quirkyFact": "Named after Niels Bohr, Nobel-winning physicist.",
        "xpos": 7,
        "ypos": 7
    },
    {
        "atomicNumber": 108,
        "group": 8,
        "name": "Hassium",
        "symbol": "Hs",
        "quirkyFact": "Named after the German state of Hesse, where it was discovered.",
        "xpos": 8,
        "ypos": 7
    },
    {
        "atomicNumber": 109,
        "group": 9,
        "name": "Meitnerium",
        "symbol": "Mt",
        "quirkyFact": "Named after Lise Meitner, pioneering nuclear physicist.",
        "xpos": 9,
        "ypos": 7
    },
    {
        "atomicNumber": 110,
        "group": 10,
        "name": "Darmstadtium",
        "symbol": "Ds",
        "quirkyFact": "Named after Darmstadt, Germany, where it was discovered.",
        "xpos": 10,
        "ypos": 7
    },
    {
        "atomicNumber": 111,
        "group": 11,
        "name": "Roentgenium",
        "symbol": "Rg",
        "quirkyFact": "Named after Wilhelm Conrad Röntgen, discoverer of X-rays.",
        "xpos": 11,
        "ypos": 7
    },
    {
        "atomicNumber": 112,
        "group": 12,
        "name": "Copernicium",
        "symbol": "Cn",
        "quirkyFact": "Named after astronomer Nicolaus Copernicus.",
        "xpos": 12,
        "ypos": 7
    },
    {
        "atomicNumber": 113,
        "group": 13,
        "name": "Nihonium",
        "symbol": "Nh",
        "quirkyFact": "Named after 'Nihon', one of the two ways to say 'Japan' in Japanese.",
        "xpos": 13,
        "ypos": 7
    },
    {
        "atomicNumber": 114,
        "group": 14,
        "name": "Flerovium",
        "symbol": "Fl",
        "quirkyFact": "Named after Russian physicist Georgy Flyorov.",
        "xpos": 14,
        "ypos": 7
    },
    {
        "atomicNumber": 115,
        "group": 15,
        "name": "Moscovium",
        "symbol": "Mc",
        "quirkyFact": "Named after the Moscow Oblast region in Russia.",
        "xpos": 15,
        "ypos": 7
    },
    {
        "atomicNumber": 116,
        "group": 16,
        "name": "Livermorium",
        "symbol": "Lv",
        "quirkyFact": "Named after the Lawrence Livermore National Laboratory in the USA.",
        "xpos": 16,
        "ypos": 7
    },
    {
        "atomicNumber": 117,
        "group": 17,
        "name": "Tennessine",
        "symbol": "Ts",
        "quirkyFact": "Named after the state of Tennessee, a center for heavy element research.",
        "xpos": 17,
        "ypos": 7
    },
    {
        "atomicNumber": 118,
        "group": 18,
        "name": "Oganesson",
        "symbol": "Og",
        "quirkyFact": "The heaviest known element and very unstable. Only a few atoms have ever been made!",
        "easterEgg": "https://www.youtube.com/watch?v=dQw4w9WgXcQ",
        "xpos": 18,
        "ypos": 7
    }
]
